ITEM: TIMESTEP
0
ITEM: NUMBER OF ATOMS
840
ITEM: BOX BOUNDS pp pp pp
-2.5000000000000000e+03 2.5000000000000000e+03
-2.5000000000000000e+03 2.5000000000000000e+03
-2.5000000000000000e+03 2.5000000000000000e+03
ITEM: ATOMS id type xs ys zs
42 42 0.274916 0.181818 0.596372
1 1 0.274916 0.226671 0.596372
41 41 0.27866 0.179664 0.599732
2 2 0.27866 0.228825 0.599732
40 40 0.282418 0.177557 0.603105
3 3 0.282418 0.230932 0.603105
39 39 0.286205 0.175546 0.606504
4 4 0.286205 0.232943 0.606504
38 38 0.290034 0.17368 0.609939
5 5 0.290034 0.234809 0.609939
37 37 0.293911 0.17201 0.613419
6 6 0.293911 0.236479 0.613419
36 36 0.297844 0.17059 0.616948
7 7 0.297844 0.237899 0.616948
35 35 0.30183 0.169476 0.620526
8 8 0.30183 0.239013 0.620526
34 34 0.305863 0.168725 0.624145
9 9 0.305863 0.239763 0.624145
33 33 0.309927 0.168397 0.627792
10 10 0.309927 0.240092 0.627792
32 32 0.313996 0.168549 0.631444
11 11 0.313996 0.23994 0.631444
31 31 0.318035 0.169235 0.635068
12 12 0.318035 0.239254 0.635068
30 30 0.321994 0.170502 0.638621
13 13 0.321994 0.237987 0.638621
29 29 0.325815 0.172386 0.64205
14 14 0.325815 0.236103 0.64205
28 28 0.329425 0.174908 0.64529
15 15 0.329425 0.233581 0.64529
27 27 0.332746 0.178067 0.64827
16 16 0.332746 0.230422 0.64827
26 26 0.335692 0.181837 0.650914
17 17 0.335692 0.226652 0.650914
25 25 0.338178 0.186164 0.653145
18 18 0.338178 0.222325 0.653145
24 24 0.340124 0.190963 0.654891
23 23 0.341463 0.196124 0.656093
22 22 0.342145 0.201512 0.656705
21 21 0.342145 0.206977 0.656705
20 20 0.341463 0.212364 0.656093
19 19 0.340124 0.217525 0.654891
252 42 0.359383 0.226737 0.751958
251 41 0.363127 0.224583 0.755317
250 40 0.366886 0.222476 0.75869
249 39 0.370673 0.220465 0.762089
248 38 0.374501 0.218599 0.765525
247 37 0.378379 0.216929 0.769005
246 36 0.382311 0.215509 0.772534
245 35 0.386298 0.214395 0.776111
244 34 0.390331 0.213644 0.779731
243 33 0.394395 0.213316 0.783378
242 32 0.398464 0.213468 0.787029
241 31 0.402502 0.214154 0.790654
240 30 0.406462 0.215421 0.794207
239 29 0.410282 0.217305 0.797635
238 28 0.413893 0.219827 0.800876
237 27 0.417214 0.222986 0.803856
236 26 0.42016 0.226756 0.8065
235 25 0.422646 0.231083 0.80873
234 24 0.424592 0.235883 0.810477
233 23 0.42593 0.241043 0.811678
232 22 0.426612 0.246431 0.81229
84 42 0.486336 0.314962 0.348243
43 1 0.486336 0.359815 0.348243
83 41 0.490079 0.312808 0.351603
44 2 0.490079 0.361969 0.351603
82 40 0.493838 0.310701 0.354976
45 3 0.493838 0.364076 0.354976
81 39 0.497625 0.30869 0.358375
46 4 0.497625 0.366087 0.358375
336 42 0.243946 0.472721 0.413785
335 41 0.24769 0.470567 0.417144
334 40 0.251448 0.468461 0.420517
333 39 0.255236 0.46645 0.423916
332 38 0.259064 0.464583 0.427351
331 37 0.262942 0.462913 0.430831
330 36 0.266874 0.461493 0.43436
329 35 0.27086 0.460379 0.437938
328 34 0.274893 0.459629 0.441557
327 33 0.278957 0.459301 0.445204
326 32 0.283027 0.459452 0.448856
325 31 0.287065 0.460138 0.45248
324 30 0.291025 0.461405 0.456034
323 29 0.294845 0.46329 0.459462
322 28 0.298456 0.465812 0.462702
321 27 0.301776 0.468971 0.465683
320 26 0.304722 0.472741 0.468326
319 25 0.307208 0.477068 0.470557
318 24 0.309154 0.481867 0.472304
126 42 0.415256 0.272201 0.47521
85 1 0.415256 0.317055 0.47521
317 23 0.310493 0.487028 0.473505
316 22 0.311175 0.492416 0.474117
315 21 0.311175 0.49788 0.474117
125 41 0.418999 0.270047 0.478569
86 2 0.418999 0.319209 0.478569
124 40 0.422758 0.267941 0.481942
87 3 0.422758 0.321315 0.481942
123 39 0.426545 0.26593 0.485341
88 4 0.426545 0.323326 0.485341
122 38 0.430373 0.264063 0.488777
89 5 0.430373 0.325193 0.488777
121 37 0.434251 0.262393 0.492257
90 6 0.434251 0.326863 0.492257
120 36 0.438184 0.260973 0.495786
91 7 0.438184 0.328283 0.495786
119 35 0.44217 0.259859 0.499363
92 8 0.44217 0.329397 0.499363
118 34 0.446203 0.259109 0.502982
93 9 0.446203 0.330147 0.502982
117 33 0.450267 0.258781 0.506629
94 10 0.450267 0.330475 0.506629
116 32 0.454336 0.258933 0.510281
95 11 0.454336 0.330324 0.510281
115 31 0.458375 0.259618 0.513906
96 12 0.458375 0.329638 0.513906
114 30 0.462334 0.260885 0.517459
97 13 0.462334 0.328371 0.517459
113 29 0.466155 0.26277 0.520887
98 14 0.466155 0.326486 0.520887
112 28 0.469765 0.265292 0.524127
99 15 0.469765 0.323964 0.524127
111 27 0.473086 0.268451 0.527108
100 16 0.473086 0.320805 0.527108
110 26 0.476032 0.272221 0.529752
101 17 0.476032 0.317035 0.529752
109 25 0.478518 0.276548 0.531982
102 18 0.478518 0.312709 0.531982
108 24 0.480464 0.281347 0.533729
107 23 0.481802 0.286508 0.53493
104 20 0.481802 0.302748 0.53493
103 19 0.480464 0.307909 0.533729
106 22 0.482485 0.291896 0.535542
105 21 0.482485 0.297361 0.535542
168 42 0.363323 0.434144 0.643196
127 1 0.363323 0.478997 0.643196
167 41 0.367066 0.43199 0.646556
128 2 0.367066 0.481151 0.646556
166 40 0.370825 0.429883 0.649929
129 3 0.370825 0.483258 0.649929
165 39 0.374612 0.427872 0.653328
130 4 0.374612 0.485269 0.653328
164 38 0.37844 0.426006 0.656763
131 5 0.37844 0.487135 0.656763
163 37 0.382318 0.424336 0.660243
132 6 0.382318 0.488805 0.660243
162 36 0.386251 0.422916 0.663772
133 7 0.386251 0.490225 0.663772
161 35 0.390237 0.421802 0.66735
134 8 0.390237 0.491339 0.66735
160 34 0.39427 0.421051 0.670969
135 9 0.39427 0.49209 0.670969
159 33 0.398334 0.420723 0.674616
136 10 0.398334 0.492418 0.674616
158 32 0.402403 0.420875 0.678268
137 11 0.402403 0.492266 0.678268
157 31 0.406442 0.421561 0.681892
138 12 0.406442 0.49158 0.681892
156 30 0.410401 0.422828 0.685445
139 13 0.410401 0.490313 0.685445
155 29 0.414222 0.424712 0.688874
140 14 0.414222 0.488429 0.688874
154 28 0.417832 0.427234 0.692114
141 15 0.417832 0.485907 0.692114
153 27 0.421153 0.430393 0.695094
142 16 0.421153 0.482748 0.695094
152 26 0.424099 0.434163 0.697738
143 17 0.424099 0.478978 0.697738
151 25 0.426585 0.43849 0.699969
144 18 0.426585 0.474651 0.699969
150 24 0.428531 0.44329 0.701715
149 23 0.429869 0.44845 0.702916
148 22 0.430552 0.453838 0.703529
147 21 0.430552 0.459303 0.703529
146 20 0.429869 0.464691 0.702916
145 19 0.428531 0.469851 0.701715
211 1 0.359383 0.27159 0.751958
212 2 0.363127 0.273744 0.755317
213 3 0.366886 0.275851 0.75869
214 4 0.370673 0.277862 0.762089
215 5 0.374501 0.279728 0.765525
216 6 0.378379 0.281398 0.769005
217 7 0.382311 0.282818 0.772534
210 42 0.4189 0.32052 0.772829
169 1 0.4189 0.365374 0.772829
218 8 0.386298 0.283932 0.776111
209 41 0.422644 0.318366 0.776189
170 2 0.422644 0.367528 0.776189
219 9 0.390331 0.284683 0.779731
208 40 0.426402 0.31626 0.779562
171 3 0.426402 0.369634 0.779562
207 39 0.430189 0.314249 0.782961
172 4 0.430189 0.371645 0.782961
220 10 0.394395 0.285011 0.783378
221 11 0.398464 0.284859 0.787029
206 38 0.434017 0.312383 0.786396
173 5 0.434017 0.373512 0.786396
222 12 0.402502 0.284173 0.790654
205 37 0.437895 0.310713 0.789876
174 6 0.437895 0.375182 0.789876
223 13 0.406462 0.282906 0.794207
204 36 0.441828 0.309292 0.793405
175 7 0.441828 0.376602 0.793405
224 14 0.410282 0.281022 0.797635
203 35 0.445814 0.308178 0.796983
176 8 0.445814 0.377716 0.796983
225 15 0.413893 0.2785 0.800876
202 34 0.449847 0.307428 0.800602
177 9 0.449847 0.378466 0.800602
226 16 0.417214 0.275341 0.803856
201 33 0.453911 0.3071 0.804249
178 10 0.453911 0.378794 0.804249
227 17 0.42016 0.271571 0.8065
228 18 0.422646 0.267244 0.80873
200 32 0.45798 0.307252 0.807901
179 11 0.45798 0.378643 0.807901
230 20 0.42593 0.257284 0.811678
229 19 0.424592 0.262444 0.810477
199 31 0.462019 0.307937 0.811525
180 12 0.462019 0.377957 0.811525
231 21 0.426612 0.251896 0.81229
198 30 0.465978 0.309204 0.815079
181 13 0.465978 0.37669 0.815079
197 29 0.469799 0.311089 0.818507
182 14 0.469799 0.374805 0.818507
196 28 0.473409 0.313611 0.821747
183 15 0.473409 0.372283 0.821747
195 27 0.47673 0.31677 0.824727
184 16 0.47673 0.369124 0.824727
194 26 0.479676 0.32054 0.827371
185 17 0.479676 0.365354 0.827371
193 25 0.482162 0.324867 0.829602
186 18 0.482162 0.361028 0.829602
192 24 0.484108 0.329666 0.831348
187 19 0.484108 0.356228 0.831348
191 23 0.485447 0.334827 0.83255
190 22 0.486129 0.340215 0.833162
189 21 0.486129 0.34568 0.833162
188 20 0.485447 0.351067 0.83255
462 42 0.478364 0.736885 0.21335
461 41 0.482108 0.734731 0.216709
460 40 0.485866 0.732625 0.220082
459 39 0.489654 0.730613 0.223481
458 38 0.493482 0.728747 0.226917
457 37 0.49736 0.727077 0.230397
294 42 0.228175 0.613946 0.38024
253 1 0.228175 0.6588 0.38024
293 41 0.231919 0.611792 0.383599
254 2 0.231919 0.660954 0.383599
292 40 0.235678 0.609686 0.386972
255 3 0.235678 0.66306 0.386972
291 39 0.239465 0.607675 0.390371
256 4 0.239465 0.665071 0.390371
290 38 0.243293 0.605808 0.393807
257 5 0.243293 0.666937 0.393807
289 37 0.247171 0.604138 0.397287
258 6 0.247171 0.668607 0.397287
288 36 0.251103 0.602718 0.400816
259 7 0.251103 0.670027 0.400816
287 35 0.25509 0.601604 0.404393
260 8 0.25509 0.671142 0.404393
286 34 0.259123 0.600854 0.408013
261 9 0.259123 0.671892 0.408013
285 33 0.263187 0.600526 0.41166
262 10 0.263187 0.67222 0.41166
295 1 0.243946 0.517575 0.413785
284 32 0.267256 0.600677 0.415311
263 11 0.267256 0.672068 0.415311
296 2 0.24769 0.519729 0.417144
283 31 0.271294 0.601363 0.418936
264 12 0.271294 0.671383 0.418936
297 3 0.251448 0.521835 0.420517
282 30 0.275254 0.60263 0.422489
265 13 0.275254 0.670116 0.422489
298 4 0.255236 0.523846 0.423916
281 29 0.279074 0.604514 0.425917
266 14 0.279074 0.668231 0.425917
299 5 0.259064 0.525713 0.427351
280 28 0.282685 0.607036 0.429158
267 15 0.282685 0.665709 0.429158
300 6 0.262942 0.527383 0.430831
279 27 0.286006 0.610196 0.432138
268 16 0.286006 0.66255 0.432138
301 7 0.266874 0.528803 0.43436
278 26 0.288952 0.613966 0.434782
269 17 0.288952 0.65878 0.434782
302 8 0.27086 0.529917 0.437938
277 25 0.291438 0.618292 0.437012
270 18 0.291438 0.654453 0.437012
276 24 0.293384 0.623092 0.438759
275 23 0.294722 0.628253 0.43996
272 20 0.294722 0.644493 0.43996
271 19 0.293384 0.649654 0.438759
303 9 0.274893 0.530667 0.441557
274 22 0.295404 0.63364 0.440572
273 21 0.295404 0.639105 0.440572
304 10 0.278957 0.530995 0.445204
305 11 0.283027 0.530844 0.448856
306 12 0.287065 0.530158 0.45248
307 13 0.291025 0.528891 0.456034
308 14 0.294845 0.527006 0.459462
309 15 0.298456 0.524484 0.462702
310 16 0.301776 0.521325 0.465683
311 17 0.304722 0.517555 0.468326
312 18 0.307208 0.513228 0.470557
313 19 0.309154 0.508429 0.472304
314 20 0.310493 0.503268 0.473505
420 42 0.365946 0.720587 0.501148
419 41 0.369689 0.718434 0.504507
418 40 0.373448 0.716327 0.50788
417 39 0.377235 0.714316 0.511279
416 38 0.381063 0.71245 0.514715
415 37 0.384941 0.71078 0.518195
414 36 0.388874 0.70936 0.521724
413 35 0.39286 0.708245 0.525301
412 34 0.396893 0.707495 0.52892
411 33 0.400957 0.707167 0.532567
410 32 0.405026 0.707319 0.536219
409 31 0.409065 0.708004 0.539844
408 30 0.413024 0.709271 0.543397
407 29 0.416845 0.711156 0.546825
406 28 0.420455 0.713678 0.550065
405 27 0.423776 0.716837 0.553046
404 26 0.426722 0.720607 0.55569
403 25 0.429208 0.724934 0.55792
402 24 0.431154 0.729733 0.559667
401 23 0.432493 0.734894 0.560868
400 22 0.433175 0.740282 0.56148
399 21 0.433175 0.745747 0.56148
378 42 0.243308 0.551278 0.714124
337 1 0.243308 0.596131 0.714124
377 41 0.247052 0.549124 0.717483
338 2 0.247052 0.598285 0.717483
376 40 0.25081 0.547017 0.720856
339 3 0.25081 0.600392 0.720856
375 39 0.254598 0.545006 0.724255
340 4 0.254598 0.602403 0.724255
374 38 0.258426 0.54314 0.72769
341 5 0.258426 0.604269 0.72769
373 37 0.262304 0.54147 0.73117
342 6 0.262304 0.605939 0.73117
372 36 0.266236 0.54005 0.734699
343 7 0.266236 0.607359 0.734699
371 35 0.270223 0.538936 0.738277
344 8 0.270223 0.608473 0.738277
370 34 0.274256 0.538185 0.741896
345 9 0.274256 0.609224 0.741896
369 33 0.278319 0.537857 0.745543
346 10 0.278319 0.609552 0.745543
368 32 0.282389 0.538009 0.749195
347 11 0.282389 0.6094 0.749195
367 31 0.286427 0.538695 0.752819
348 12 0.286427 0.608714 0.752819
366 30 0.290387 0.539962 0.756373
349 13 0.290387 0.607447 0.756373
365 29 0.294207 0.541846 0.759801
350 14 0.294207 0.605563 0.759801
364 28 0.297818 0.544368 0.763041
351 15 0.297818 0.603041 0.763041
363 27 0.301138 0.547527 0.766021
352 16 0.301138 0.599882 0.766021
362 26 0.304085 0.551297 0.768665
353 17 0.304085 0.596112 0.768665
361 25 0.30657 0.555624 0.770896
354 18 0.30657 0.591785 0.770896
360 24 0.308516 0.560424 0.772643
359 23 0.309855 0.565584 0.773844
356 20 0.309855 0.581825 0.773844
355 19 0.308516 0.586985 0.772643
358 22 0.310537 0.570972 0.774456
357 21 0.310537 0.576437 0.774456
421 1 0.478364 0.781739 0.21335
422 2 0.482108 0.783892 0.216709
423 3 0.485866 0.785999 0.220082
424 4 0.489654 0.78801 0.223481
425 5 0.493482 0.789876 0.226917
426 6 0.49736 0.791546 0.230397
504 42 0.391116 0.764282 0.479685
463 1 0.391116 0.809136 0.479685
503 41 0.39486 0.762128 0.483045
464 2 0.39486 0.81129 0.483045
502 40 0.398619 0.760022 0.486418
465 3 0.398619 0.813396 0.486418
501 39 0.402406 0.758011 0.489817
466 4 0.402406 0.815407 0.489817
500 38 0.406234 0.756144 0.493252
467 5 0.406234 0.817274 0.493252
499 37 0.410112 0.754474 0.496732
468 6 0.410112 0.818944 0.496732
498 36 0.414044 0.753054 0.500261
379 1 0.365946 0.765441 0.501148
469 7 0.414044 0.820364 0.500261
497 35 0.418031 0.75194 0.503839
470 8 0.418031 0.821478 0.503839
380 2 0.369689 0.767595 0.504507
496 34 0.422064 0.75119 0.507458
381 3 0.373448 0.769701 0.50788
471 9 0.422064 0.822228 0.507458
495 33 0.426128 0.750862 0.511105
382 4 0.377235 0.771712 0.511279
472 10 0.426128 0.822556 0.511105
494 32 0.430197 0.751013 0.514757
383 5 0.381063 0.773579 0.514715
473 11 0.430197 0.822405 0.514757
493 31 0.434235 0.751699 0.518381
384 6 0.384941 0.775249 0.518195
474 12 0.434235 0.821719 0.518381
492 30 0.438195 0.752966 0.521934
385 7 0.388874 0.776669 0.521724
475 13 0.438195 0.820452 0.521934
491 29 0.442015 0.754851 0.525363
386 8 0.39286 0.777783 0.525301
476 14 0.442015 0.818567 0.525363
490 28 0.445626 0.757373 0.528603
477 15 0.445626 0.816045 0.528603
387 9 0.396893 0.778533 0.52892
489 27 0.448947 0.760532 0.531583
388 10 0.400957 0.778861 0.532567
478 16 0.448947 0.812886 0.531583
488 26 0.451893 0.764302 0.534227
479 17 0.451893 0.809116 0.534227
487 25 0.454379 0.768629 0.536458
389 11 0.405026 0.77871 0.536219
480 18 0.454379 0.804789 0.536458
486 24 0.456325 0.773428 0.538204
485 23 0.457663 0.778589 0.539406
482 20 0.457663 0.794829 0.539406
481 19 0.456325 0.79999 0.538204
390 12 0.409065 0.778024 0.539844
484 22 0.458345 0.783977 0.540018
483 21 0.458345 0.789441 0.540018
391 13 0.413024 0.776757 0.543397
392 14 0.416845 0.774873 0.546825
393 15 0.420455 0.772351 0.550065
394 16 0.423776 0.769192 0.553046
395 17 0.426722 0.765421 0.55569
397 19 0.431154 0.756295 0.559667
396 18 0.429208 0.761095 0.55792
398 20 0.432493 0.751134 0.560868
80 38 0.501453 0.306824 0.36181
47 5 0.501453 0.367953 0.36181
79 37 0.505331 0.305154 0.36529
48 6 0.505331 0.369623 0.36529
78 36 0.509264 0.303734 0.368819
49 7 0.509264 0.371043 0.368819
77 35 0.51325 0.30262 0.372397
50 8 0.51325 0.372157 0.372397
76 34 0.517283 0.301869 0.376016
51 9 0.517283 0.372908 0.376016
75 33 0.521347 0.301541 0.379663
52 10 0.521347 0.373236 0.379663
74 32 0.525416 0.301693 0.383315
53 11 0.525416 0.373084 0.383315
73 31 0.529455 0.302379 0.386939
54 12 0.529455 0.372398 0.386939
72 30 0.533414 0.303646 0.390492
55 13 0.533414 0.371131 0.390492
71 29 0.537235 0.30553 0.393921
56 14 0.537235 0.369247 0.393921
70 28 0.540845 0.308052 0.397161
57 15 0.540845 0.366725 0.397161
69 27 0.544166 0.311211 0.400141
58 16 0.544166 0.363566 0.400141
68 26 0.547112 0.314981 0.402785
59 17 0.547112 0.359796 0.402785
67 25 0.549598 0.319308 0.405016
66 24 0.551544 0.324107 0.406762
61 19 0.551544 0.350669 0.406762
60 18 0.549598 0.355469 0.405016
65 23 0.552883 0.329268 0.407964
64 22 0.553565 0.334656 0.408576
63 21 0.553565 0.340121 0.408576
62 20 0.552883 0.345508 0.407964
672 42 0.742488 0.475011 0.493074
671 41 0.746232 0.472857 0.496434
670 40 0.749991 0.47075 0.499807
669 39 0.753778 0.468739 0.503206
668 38 0.757606 0.466873 0.506641
667 37 0.761484 0.465203 0.510121
666 36 0.765416 0.463783 0.51365
665 35 0.769403 0.462669 0.517228
664 34 0.773436 0.461918 0.520847
663 33 0.7775 0.46159 0.524494
662 32 0.781569 0.461742 0.528146
661 31 0.785608 0.462428 0.53177
660 30 0.789567 0.463695 0.535324
659 29 0.793387 0.465579 0.538752
658 28 0.796998 0.468101 0.541992
657 27 0.800319 0.47126 0.544972
656 26 0.803265 0.47503 0.547616
655 25 0.805751 0.479357 0.549847
654 24 0.807697 0.484157 0.551593
653 23 0.809035 0.489317 0.552795
652 22 0.809718 0.494705 0.553407
546 42 0.73829 0.717822 0.219638
545 41 0.742034 0.715668 0.222998
544 40 0.745793 0.713561 0.226371
543 39 0.74958 0.71155 0.229769
542 38 0.753408 0.709684 0.233205
456 36 0.501292 0.725657 0.233926
541 37 0.757286 0.708014 0.236685
455 35 0.505278 0.724543 0.237503
540 36 0.761218 0.706594 0.240214
454 34 0.509312 0.723793 0.241122
539 35 0.765205 0.70548 0.243791
453 33 0.513375 0.723464 0.244769
538 34 0.769238 0.704729 0.247411
452 32 0.517445 0.723616 0.248421
537 33 0.773302 0.704401 0.251058
451 31 0.521483 0.724302 0.252045
536 32 0.777371 0.704553 0.25471
450 30 0.525443 0.725569 0.255599
535 31 0.781409 0.705239 0.258334
449 29 0.529263 0.727453 0.259027
534 30 0.785369 0.706506 0.261887
448 28 0.532874 0.729975 0.262267
533 29 0.789189 0.70839 0.265315
447 27 0.536194 0.733134 0.265248
532 28 0.7928 0.710912 0.268556
446 26 0.53914 0.736904 0.267891
531 27 0.796121 0.714071 0.271536
445 25 0.541626 0.741231 0.270122
444 24 0.543572 0.746031 0.271869
530 26 0.799067 0.717841 0.27418
529 25 0.801553 0.722168 0.276411
528 24 0.803499 0.726968 0.278157
527 23 0.804837 0.732129 0.279358
526 22 0.805519 0.737516 0.27997
525 21 0.805519 0.742981 0.27997
524 20 0.804837 0.748369 0.279358
588 42 0.745889 0.629616 0.340771
547 1 0.745889 0.674469 0.340771
587 41 0.749633 0.627462 0.344131
548 2 0.749633 0.676623 0.344131
586 40 0.753391 0.625355 0.347504
549 3 0.753391 0.67873 0.347504
585 39 0.757179 0.623344 0.350903
550 4 0.757179 0.680741 0.350903
584 38 0.761007 0.621478 0.354338
551 5 0.761007 0.682607 0.354338
583 37 0.764885 0.619808 0.357818
552 6 0.764885 0.684277 0.357818
582 36 0.768817 0.618388 0.361347
553 7 0.768817 0.685697 0.361347
581 35 0.772803 0.617274 0.364925
554 8 0.772803 0.686811 0.364925
580 34 0.776837 0.616523 0.368544
555 9 0.776837 0.687562 0.368544
579 33 0.7809 0.616195 0.372191
556 10 0.7809 0.68789 0.372191
578 32 0.78497 0.616347 0.375843
557 11 0.78497 0.687738 0.375843
577 31 0.789008 0.617033 0.379467
558 12 0.789008 0.687052 0.379467
576 30 0.792968 0.6183 0.38302
559 13 0.792968 0.685785 0.38302
575 29 0.796788 0.620184 0.386449
560 14 0.796788 0.683901 0.386449
574 28 0.800399 0.622706 0.389689
561 15 0.800399 0.681379 0.389689
573 27 0.803719 0.625865 0.392669
562 16 0.803719 0.67822 0.392669
572 26 0.806665 0.629635 0.395313
563 17 0.806665 0.67445 0.395313
571 25 0.809151 0.633962 0.397544
564 18 0.809151 0.670123 0.397544
570 24 0.811097 0.638762 0.39929
565 19 0.811097 0.665323 0.39929
569 23 0.812436 0.643922 0.400491
568 22 0.813118 0.64931 0.401104
567 21 0.813118 0.654775 0.401104
566 20 0.812436 0.660163 0.400491
631 1 0.742488 0.519864 0.493074
632 2 0.746232 0.522018 0.496434
633 3 0.749991 0.524125 0.499807
634 4 0.753778 0.526136 0.503206
635 5 0.757606 0.528002 0.506641
636 6 0.761484 0.529672 0.510121
637 7 0.765416 0.531092 0.51365
638 8 0.769403 0.532206 0.517228
639 9 0.773436 0.532957 0.520847
640 10 0.7775 0.533285 0.524494
641 11 0.781569 0.533133 0.528146
642 12 0.785608 0.532447 0.53177
643 13 0.789567 0.53118 0.535324
644 14 0.793387 0.529296 0.538752
645 15 0.796998 0.526774 0.541992
646 16 0.800319 0.523615 0.544972
647 17 0.803265 0.519845 0.547616
648 18 0.805751 0.515518 0.549847
650 20 0.809035 0.505558 0.552795
649 19 0.807697 0.510718 0.551593
651 21 0.809718 0.50017 0.553407
630 42 0.633293 0.62431 0.57421
589 1 0.633293 0.669164 0.57421
629 41 0.637037 0.622157 0.57757
590 2 0.637037 0.671318 0.57757
628 40 0.640795 0.62005 0.580943
591 3 0.640795 0.673424 0.580943
627 39 0.644582 0.618039 0.584342
592 4 0.644582 0.675436 0.584342
626 38 0.648411 0.616173 0.587777
593 5 0.648411 0.677302 0.587777
625 37 0.652288 0.614503 0.591257
594 6 0.652288 0.678972 0.591257
624 36 0.656221 0.613083 0.594786
595 7 0.656221 0.680392 0.594786
623 35 0.660207 0.611969 0.598364
596 8 0.660207 0.681506 0.598364
622 34 0.66424 0.611218 0.601983
597 9 0.66424 0.682256 0.601983
621 33 0.668304 0.61089 0.60563
598 10 0.668304 0.682585 0.60563
620 32 0.672373 0.611042 0.609282
599 11 0.672373 0.682433 0.609282
619 31 0.676412 0.611727 0.612906
600 12 0.676412 0.681747 0.612906
618 30 0.680371 0.612994 0.616459
601 13 0.680371 0.68048 0.616459
617 29 0.684192 0.614879 0.619888
602 14 0.684192 0.678596 0.619888
616 28 0.687802 0.617401 0.623128
603 15 0.687802 0.676074 0.623128
756 42 0.720645 0.550023 0.625034
715 1 0.720645 0.594877 0.625034
615 27 0.691123 0.62056 0.626108
604 16 0.691123 0.672915 0.626108
755 41 0.724389 0.547869 0.628394
716 2 0.724389 0.59703 0.628394
614 26 0.694069 0.62433 0.628752
605 17 0.694069 0.669145 0.628752
754 40 0.728147 0.545763 0.631767
717 3 0.728147 0.599137 0.631767
613 25 0.696555 0.628657 0.630983
612 24 0.698501 0.633456 0.632729
607 19 0.698501 0.660018 0.632729
606 18 0.696555 0.664818 0.630983
611 23 0.69984 0.638617 0.633931
610 22 0.700522 0.644005 0.634543
609 21 0.700522 0.64947 0.634543
608 20 0.69984 0.654857 0.633931
753 39 0.731934 0.543752 0.635165
718 4 0.731934 0.601148 0.635165
752 38 0.735763 0.541885 0.638601
719 5 0.735763 0.603014 0.638601
751 37 0.73964 0.540215 0.642081
720 6 0.73964 0.604684 0.642081
750 36 0.743573 0.538795 0.64561
721 7 0.743573 0.606104 0.64561
749 35 0.747559 0.537681 0.649187
722 8 0.747559 0.607218 0.649187
748 34 0.751592 0.536931 0.652807
723 9 0.751592 0.607969 0.652807
747 33 0.755656 0.536603 0.656454
724 10 0.755656 0.608297 0.656454
746 32 0.759726 0.536754 0.660106
725 11 0.759726 0.608145 0.660106
745 31 0.763764 0.53744 0.66373
726 12 0.763764 0.60746 0.66373
744 30 0.767723 0.538707 0.667283
727 13 0.767723 0.606193 0.667283
743 29 0.771544 0.540591 0.670712
728 14 0.771544 0.604308 0.670712
742 28 0.775154 0.543113 0.673952
729 15 0.775154 0.601786 0.673952
741 27 0.778475 0.546272 0.676932
730 16 0.778475 0.598627 0.676932
740 26 0.781421 0.550043 0.679576
731 17 0.781421 0.594857 0.679576
714 42 0.656605 0.63442 0.67999
673 1 0.656605 0.679273 0.67999
739 25 0.783907 0.554369 0.681807
738 24 0.785853 0.559169 0.683553
733 19 0.785853 0.585731 0.683553
732 18 0.783907 0.59053 0.681807
713 41 0.660349 0.632266 0.683349
674 2 0.660349 0.681427 0.683349
737 23 0.787192 0.56433 0.684754
736 22 0.787874 0.569717 0.685367
735 21 0.787874 0.575182 0.685367
734 20 0.787192 0.58057 0.684754
712 40 0.664107 0.630159 0.686722
675 3 0.664107 0.683534 0.686722
711 39 0.667895 0.628148 0.690121
676 4 0.667895 0.685545 0.690121
710 38 0.671723 0.626282 0.693557
677 5 0.671723 0.687411 0.693557
709 37 0.675601 0.624612 0.697037
678 6 0.675601 0.689081 0.697037
708 36 0.679533 0.623192 0.700566
679 7 0.679533 0.690501 0.700566
707 35 0.68352 0.622078 0.704143
680 8 0.68352 0.691615 0.704143
706 34 0.687553 0.621327 0.707762
681 9 0.687553 0.692366 0.707762
705 33 0.691616 0.620999 0.711409
682 10 0.691616 0.692694 0.711409
704 32 0.695686 0.621151 0.715061
683 11 0.695686 0.692542 0.715061
703 31 0.699724 0.621837 0.718685
684 12 0.699724 0.691856 0.718685
702 30 0.703684 0.623104 0.722239
685 13 0.703684 0.690589 0.722239
701 29 0.707504 0.624988 0.725667
686 14 0.707504 0.688705 0.725667
700 28 0.711115 0.62751 0.728907
687 15 0.711115 0.686183 0.728907
699 27 0.714435 0.630669 0.731888
688 16 0.714435 0.683024 0.731888
698 26 0.717382 0.634439 0.734531
689 17 0.717382 0.679254 0.734531
697 25 0.719867 0.638766 0.736762
696 24 0.721813 0.643566 0.738509
691 19 0.721813 0.670127 0.738509
690 18 0.719867 0.674927 0.736762
695 23 0.723152 0.648726 0.73971
694 22 0.723834 0.654114 0.740322
693 21 0.723834 0.659579 0.740322
692 20 0.723152 0.664967 0.73971
798 42 0.57928 0.626143 0.777922
757 1 0.57928 0.670997 0.777922
797 41 0.583023 0.623989 0.781281
758 2 0.583023 0.673151 0.781281
796 40 0.586782 0.621883 0.784654
759 3 0.586782 0.675257 0.784654
795 39 0.590569 0.619872 0.788053
760 4 0.590569 0.677268 0.788053
794 38 0.594397 0.618005 0.791489
761 5 0.594397 0.679135 0.791489
793 37 0.598275 0.616335 0.794969
762 6 0.598275 0.680805 0.794969
792 36 0.602208 0.614915 0.798498
763 7 0.602208 0.682225 0.798498
791 35 0.606194 0.613801 0.802075
764 8 0.606194 0.683339 0.802075
790 34 0.610227 0.613051 0.805694
765 9 0.610227 0.684089 0.805694
789 33 0.614291 0.612723 0.809341
766 10 0.614291 0.684417 0.809341
788 32 0.61836 0.612874 0.812993
767 11 0.61836 0.684266 0.812993
787 31 0.622399 0.61356 0.816618
768 12 0.622399 0.68358 0.816618
786 30 0.626358 0.614827 0.820171
769 13 0.626358 0.682313 0.820171
785 29 0.630179 0.616712 0.823599
770 14 0.630179 0.680428 0.823599
784 28 0.633789 0.619234 0.826839
771 15 0.633789 0.677906 0.826839
783 27 0.63711 0.622393 0.82982
772 16 0.63711 0.674747 0.82982
782 26 0.640056 0.626163 0.832464
773 17 0.640056 0.670977 0.832464
781 25 0.642542 0.63049 0.834694
774 18 0.642542 0.666651 0.834694
780 24 0.644488 0.635289 0.836441
779 23 0.645827 0.64045 0.837642
778 22 0.646509 0.645838 0.838254
777 21 0.646509 0.651303 0.838254
776 20 0.645827 0.65669 0.837642
775 19 0.644488 0.661851 0.836441
505 1 0.73829 0.762675 0.219638
506 2 0.742034 0.764829 0.222998
507 3 0.745793 0.766936 0.226371
508 4 0.74958 0.768947 0.229769
509 5 0.753408 0.770813 0.233205
427 7 0.501292 0.792966 0.233926
510 6 0.757286 0.772483 0.236685
428 8 0.505278 0.79408 0.237503
511 7 0.761218 0.773903 0.240214
429 9 0.509312 0.794831 0.241122
512 8 0.765205 0.775017 0.243791
430 10 0.513375 0.795159 0.244769
513 9 0.769238 0.775768 0.247411
431 11 0.517445 0.795007 0.248421
514 10 0.773302 0.776096 0.251058
432 12 0.521483 0.794322 0.252045
515 11 0.777371 0.775944 0.25471
433 13 0.525443 0.793055 0.255599
516 12 0.781409 0.775258 0.258334
434 14 0.529263 0.79117 0.259027
517 13 0.785369 0.773991 0.261887
435 15 0.532874 0.788648 0.262267
518 14 0.789189 0.772107 0.265315
436 16 0.536194 0.785489 0.265248
519 15 0.7928 0.769585 0.268556
437 17 0.53914 0.781719 0.267891
520 16 0.796121 0.766426 0.271536
439 19 0.543572 0.772593 0.271869
438 18 0.541626 0.777392 0.270122
443 23 0.544911 0.751192 0.27307
442 22 0.545593 0.756579 0.273682
441 21 0.545593 0.762044 0.273682
521 17 0.799067 0.762656 0.27418
440 20 0.544911 0.767432 0.27307
522 18 0.801553 0.758329 0.276411
523 19 0.803499 0.753529 0.278157
840 42 0.634944 0.771972 0.716443
799 1 0.634944 0.816825 0.716443
839 41 0.638688 0.769818 0.719802
800 2 0.638688 0.818979 0.719802
838 40 0.642446 0.767711 0.723175
801 3 0.642446 0.821086 0.723175
837 39 0.646233 0.7657 0.726574
802 4 0.646233 0.823097 0.726574
836 38 0.650061 0.763834 0.730009
803 5 0.650061 0.824963 0.730009
835 37 0.653939 0.762164 0.73349
804 6 0.653939 0.826633 0.73349
834 36 0.657872 0.760744 0.737019
805 7 0.657872 0.828053 0.737019
833 35 0.661858 0.75963 0.740596
806 8 0.661858 0.829167 0.740596
832 34 0.665891 0.758879 0.744215
807 9 0.665891 0.829918 0.744215
831 33 0.669955 0.758551 0.747862
808 10 0.669955 0.830246 0.747862
830 32 0.674024 0.758703 0.751514
809 11 0.674024 0.830094 0.751514
829 31 0.678063 0.759389 0.755138
810 12 0.678063 0.829408 0.755138
828 30 0.682022 0.760656 0.758692
811 13 0.682022 0.828141 0.758692
827 29 0.685843 0.76254 0.76212
812 14 0.685843 0.826257 0.76212
826 28 0.689453 0.765062 0.76536
813 15 0.689453 0.823735 0.76536
825 27 0.692774 0.768221 0.768341
814 16 0.692774 0.820576 0.768341
824 26 0.69572 0.771991 0.770984
815 17 0.69572 0.816806 0.770984
823 25 0.698206 0.776318 0.773215
816 18 0.698206 0.812479 0.773215
822 24 0.700152 0.781118 0.774962
821 23 0.701491 0.786278 0.776163
818 20 0.701491 0.802519 0.776163
817 19 0.700152 0.807679 0.774962
820 22 0.702173 0.791666 0.776775
819 21 0.702173 0.797131 0.776775
ITEM: TIMESTEP
1000
ITEM: NUMBER OF ATOMS
840
ITEM: BOX BOUNDS pp pp pp
-2.5000000000000000e+03 2.5000000000000000e+03
-2.5000000000000000e+03 2.5000000000000000e+03
-2.5000000000000000e+03 2.5000000000000000e+03
ITEM: ATOMS id type xs ys zs
42 42 0.274916 0.181818 0.596372
1 1 0.274916 0.226671 0.596372
41 41 0.278265 0.179073 0.599671
2 2 0.27859 0.229757 0.599013
40 40 0.28172 0.176375 0.602891
3 3 0.28224 0.232761 0.601848
39 39 0.285521 0.17392 0.606042
4 4 0.285949 0.235334 0.60523
38 38 0.289396 0.171856 0.609263
5 5 0.289619 0.237504 0.608724
37 37 0.293434 0.1702 0.612589
6 6 0.293287 0.239022 0.612518
36 36 0.29752 0.169154 0.615969
7 7 0.297058 0.240065 0.616372
35 35 0.301678 0.168479 0.619426
8 8 0.300769 0.240893 0.620338
34 34 0.305895 0.168538 0.622781
9 9 0.304481 0.240963 0.624295
33 33 0.310153 0.168738 0.626229
10 10 0.308292 0.240906 0.628324
32 32 0.314409 0.169282 0.629699
11 11 0.312093 0.240596 0.632235
31 31 0.318438 0.170168 0.633273
12 12 0.316181 0.239865 0.635913
30 30 0.322308 0.171432 0.636883
13 13 0.320187 0.238618 0.639509
29 29 0.326063 0.173333 0.640293
14 14 0.324122 0.236911 0.642886
28 28 0.329454 0.17588 0.643787
15 15 0.327892 0.234442 0.646076
27 27 0.332385 0.179047 0.64703
16 16 0.331196 0.23126 0.649029
26 26 0.334967 0.18287 0.649954
25 25 0.336968 0.187184 0.652622
18 18 0.336638 0.223458 0.654164
17 17 0.334188 0.227603 0.651814
24 24 0.338471 0.192028 0.654696
23 23 0.339389 0.197188 0.656064
20 20 0.339496 0.213384 0.657033
19 19 0.338472 0.218498 0.655945
22 22 0.339994 0.202567 0.657015
21 21 0.340018 0.207932 0.657389
252 42 0.359383 0.226737 0.751958
251 41 0.363559 0.224208 0.754522
250 40 0.367451 0.221365 0.757048
249 39 0.371515 0.218824 0.759615