LAMMPS (23 Jun 2022 - Update 4)
OMP_NUM_THREADS environment is not set. Defaulting to 1 thread. (../comm.cpp:98)
  using 1 OpenMP thread(s) per MPI task
# Reminder: indicate displacement ratio as a -var variable
# Stretching a single copy of Alpha Spectrin

variable dispRatio universe 0.05 0.10 0.15 0.20 0.25 0.30 0.35 0.40 0.45 0.50 0.55 0.60 0.65 0.70 0.75 0.80 0.85 0.90 0.95 1.0

log out/log_IdealizedStretchSingle.lammps
