ITEM: TIMESTEP
53459
ITEM: NUMBER OF ATOMS
84
ITEM: BOX BOUNDS pp pp pp
-5.0000000000000000e+03 5.0000000000000000e+03
-5.0000000000000000e+03 5.0000000000000000e+03
-5.0000000000000000e+03 5.0000000000000000e+03
ITEM: ATOMS id x y z
1 5.97446 -21.1776 -38.3993
2 9.30767 5.4168 -32.9484
3 12.5772 32.0215 -27.5092
4 15.7196 58.6465 -22.0945
5 18.6703 85.3009 -16.7173
6 21.3645 111.993 -11.3906
7 23.736 138.728 -6.12753
8 25.7179 165.509 -0.942327
9 27.2433 192.339 4.14966
10 28.2439 219.214 9.13184
11 28.6506 246.127 13.987
12 28.3934 273.068 18.6968
13 27.402 300.021 23.242
14 25.6051 326.962 27.6024
15 22.9313 353.863 31.757
16 19.3102 380.687 35.6827
17 14.6719 407.39 39.3551
18 8.94897 433.919 42.7485
19 2.0768 460.211 45.8367
20 -6.00565 486.194 48.5926
21 -15.3551 511.785 50.9894
22 -26.0217 536.889 52.9993
23 -38.0483 561.401 54.5945
24 -51.4674 585.205 55.7473
25 -66.3009 608.172 56.4309
26 -82.5567 630.166 56.6195
27 -100.227 651.038 56.2895
28 -119.285 670.635 55.4199
29 -139.685 688.794 53.993
30 -161.359 705.353 51.9949
31 -184.217 720.147 49.4173
32 -208.142 733.013 46.2582
33 -232.995 743.798 42.5224
34 -258.611 752.358 38.2219
35 -284.801 758.565 33.3767
36 -311.356 762.31 28.0147
37 -338.045 763.509 22.1725
38 -364.626 762.106 15.8947
39 -390.842 758.074 9.23427
40 -416.433 751.422 2.25106
41 -441.137 742.191 -4.98804
42 -464.698 730.459 -12.4113
43 -486.874 716.338 -19.9439
44 -507.436 699.971 -27.5088
45 -526.181 681.533 -35.0287
46 -542.931 661.221 -42.4278
47 -557.539 639.253 -49.6344
48 -569.888 615.862 -56.5812
49 -579.895 591.288 -63.206
50 -587.513 565.776 -69.4535
51 -592.723 539.567 -75.2763
52 -595.539 512.897 -80.635
53 -596 485.989 -85.4985
54 -594.168 459.05 -89.8447
55 -590.128 432.271 -93.659
56 -583.98 405.824 -96.9344
57 -575.836 379.86 -99.6699
58 -565.817 354.507 -101.871
59 -554.053 329.874 -103.546
60 -540.672 306.049 -104.711
61 -525.807 283.102 -105.384
62 -509.587 261.082 -105.586
63 -492.135 240.025 -105.339
64 -473.572 219.95 -104.668
65 -454.013 200.862 -103.597
66 -433.566 182.756 -102.153
67 -412.329 165.614 -100.361
68 -390.396 149.411 -98.2468
69 -367.852 134.114 -95.8349
70 -344.774 119.683 -93.1496
71 -321.232 106.073 -90.2142
72 -297.289 93.2363 -87.0518
73 -273 81.1204 -83.6838
74 -248.417 69.6708 -80.1312
75 -223.583 58.8304 -76.4135
76 -198.537 48.5411 -72.5491
77 -173.315 38.7436 -68.5554
78 -147.948 29.3776 -64.4501
79 -122.462 20.3825 -60.2504
80 -96.8817 11.6971 -55.9726
81 -71.2289 3.26025 -51.6329
82 -45.5231 -4.98964 -47.2472
83 -19.7828 -13.1148 -42.8309
84 5.97446 -21.1776 -38.3993
