ITEM: TIMESTEP
0
ITEM: NUMBER OF ATOMS
32
ITEM: BOX BOUNDS pp pp pp
-5.0000000000000000e+02 5.0000000000000000e+02
-5.0000000000000000e+02 5.0000000000000000e+02
-5.0000000000000000e+02 5.0000000000000000e+02
ITEM: ATOMS mol id type mass
1 1 1 12264.7
1 2 2 12210.8
1 3 3 15177.3
1 4 4 11576
1 5 5 1155.39
1 6 6 11197.9
1 7 7 1299.54
1 8 8 11331.9
1 9 9 1205.25
1 10 10 10872.9
1 11 11 1202.36
1 12 12 11281.6
1 13 13 1063.18
1 14 14 11067.3
1 15 15 1038.19
1 16 16 10887.9
1 17 17 1099.28
1 18 18 10905.1
1 19 19 1208.36
1 20 20 11125.5
1 21 21 924.971
1 22 22 10269.7
1 23 23 12172.6
1 24 24 1182.27
1 25 25 10981.3
1 26 26 1304.53
1 27 27 11162.3
1 28 28 1140.31
1 29 29 10733.9
1 30 30 1174.33
1 31 31 12681.6
1 32 32 13918.1
