ITEM: TIMESTEP
501377
ITEM: NUMBER OF ATOMS
32
ITEM: BOX BOUNDS pp pp pp
-5.0000000000000000e+02 5.0000000000000000e+02
-5.0000000000000000e+02 5.0000000000000000e+02
-5.0000000000000000e+02 5.0000000000000000e+02
ITEM: ATOMS id x y z
1 4.87769 -102.637 -60.889
2 27.7127 -109.902 -75.4721
3 75.0753 -62.1346 -58.1636
4 90.6493 -13.5884 -27.184
5 93.2163 7.9798 -12.7811
6 91.6083 26.7239 2.58574
7 85.729 46.518 19.3177
8 77.1192 62.1969 34.8682
9 60.463 71.4095 48.2169
10 38.5636 59.6083 46.3904
11 19.0882 44.4618 40.4252
12 13.1628 26.2316 24.8566
13 14.9028 7.60547 7.96437
14 18.2344 -13.9739 -1.52642
15 17.0818 -40.1194 -3.55309
16 4.5517 -30.0091 16.0863
17 -10.2564 -13.0334 26.5881
18 -22.9648 4.45423 41.7748
19 -37.0157 19.6076 57.1296
20 -50.6228 30.7412 76.2254
21 -64.4608 39.819 96.7904
22 -62.3873 54.9242 87.0895
23 -69.956 49.9943 40.932
24 -72.392 44.1887 14.2098
25 -72.2978 35.2328 -10.5657
26 -69.9529 23.7626 -32.7503
27 -62.6168 6.37722 -49.9519
28 -54.4082 -11.8117 -65.5891
29 -43.1003 -31.7418 -72.3375
30 -29.5654 -54.0598 -75.9338
31 -14.9166 -76.1894 -73.8643
32 4.87769 -102.637 -60.889
