LAMMPS data file via write_data, version 4 May 2022, timestep = 501377

32 atoms
32 atom types
31 bonds
31 bond types
30 angles
30 angle types

-500 500 xlo xhi
-500 500 ylo yhi
-500 500 zlo zhi

Masses

1 12264.6738
2 12210.8318
3 15177.2637
4 11575.9598
5 1155.387
6 11197.8728
7 1299.544
8 11331.8818
9 1205.25
10 10872.8568
11 1202.355
12 11281.6028
13 1063.185
14 11067.3068
15 1038.191
16 10887.9338
17 1099.276
18 10905.0568
19 1208.363
20 11125.4838
21 924.971
22 10269.7308
23 12172.5618
24 1182.265
25 10981.2818
26 1304.533
27 11162.3408
28 1140.311
29 10733.8938
30 1174.325
31 12681.5978
32 13918.1257

Bond Coeffs # harmonic

1 4.871 28.0513
2 0.263 69.4585
3 0.869 59.6575
4 4.858 26.0619
5 3.448 24.2913
6 4.398 26.5769
7 2.489 23.7017
8 2.933 23.2485
9 3.976 24.9437
10 5.458 25.3829
11 2.348 24.6948
12 4.01 25.2053
13 7.2 23.8085
14 1.587 26.2492
15 2.342 25.3954
16 6.855 24.8544
17 5.354 26.4189
18 5.375 25.7453
19 2.284 25.9569
20 1.686 26.3973
21 1.386 18.0713
22 1.256 47.033
23 4.651 27.4539
24 2.571 26.3447
25 3.238 25.0843
26 4.729 25.5336
27 5.981 25.3523
28 3.211 23.8876
29 4.514 26.3481
30 4.312 26.6193
31 0.083 35.4916

Angle Coeffs # harmonic

1 36.18 104.326
2 178.968 150.116
3 192.69 170.448
4 28.766 169.015
5 265.207 170.975
6 82.884 170.434
7 145.137 154.04
8 163.949 113.546
9 414.662 166.692
10 104.078 140.604
11 287.82 162.078
12 47.74 161.192
13 174.167 158.037
14 196.249 64.2413
15 309.02 153.207
16 86.814 168.99
17 234.638 174.258
18 205.912 167.776
19 228.46 174.528
20 145.81 78.994
21 128.185 114.881
22 95.22 172.602
23 86.553 170.731
24 252.858 170.934
25 138.122 159.069
26 410.458 175.597
27 62.767 157.836
28 223.493 171.282
29 67.397 167.49
30 48.84 162.714

Atoms # molecular

1 1 1 4.877686856606806 -102.63709323156583 -60.88903646070662 0 0 0
2 1 2 27.712681964659037 -109.90155262952989 -75.47211088829432 0 0 0
3 1 3 75.0753224270317 -62.13463846011386 -58.16357480306564 0 0 0
4 1 4 90.64934158048652 -13.588426831863345 -27.184023963795287 0 0 0
5 1 5 93.21633754622911 7.979801124125842 -12.781083077977982 0 0 0
6 1 6 91.60825606053497 26.72392323720028 2.585738839240996 0 0 0
7 1 7 85.7289506624004 46.51803785830184 19.317696525422228 0 0 0
8 1 8 77.11924806065332 62.196871813782494 34.86818750789403 0 0 0
9 1 9 60.46300633133987 71.40954502785674 48.216933364915796 0 0 0
10 1 10 38.56363238470499 59.60830150432922 46.390395181945244 0 0 0
11 1 11 19.088215607197952 44.46181411214728 40.42518995237679 0 0 0
12 1 12 13.162766127839511 26.231602697739376 24.85658091709164 0 0 0
13 1 13 14.902785896761664 7.60547473850184 7.96436861260441 0 0 0
14 1 14 18.23442685262463 -13.973906884337012 -1.5264232177488921 0 0 0
15 1 15 17.081801930750192 -40.11935754552232 -3.5530870164580506 0 0 0
16 1 16 4.551695401720798 -30.00913597429261 16.086317030300002 0 0 0
17 1 17 -10.256360424066642 -13.033415549615526 26.588107262615814 0 0 0
18 1 18 -22.964779128433445 4.4542349463604864 41.77482683515979 0 0 0
19 1 19 -37.01569216534375 19.60755239999888 57.129607363335445 0 0 0
20 1 20 -50.62281986751742 30.74124614650141 76.22535549913337 0 0 0
21 1 21 -64.46078361753246 39.81903907615556 96.79042010077256 0 0 0
22 1 22 -62.38726871090003 54.92417635633417 87.089531101875 0 0 0
23 1 23 -69.9560180528787 49.99428515234088 40.93204747121029 0 0 0
24 1 24 -72.39195677812309 44.18874312251522 14.209800008154694 0 0 0
25 1 25 -72.29782545924247 35.23281059173985 -10.565704626241796 0 0 0
26 1 26 -69.95292717380394 23.7625707983169 -32.750319962152425 0 0 0
27 1 27 -62.616835942566595 6.377216056679558 -49.95194590025456 0 0 0
28 1 28 -54.40820702473846 -11.811681778227339 -65.58912985807487 0 0 0
29 1 29 -43.10030390301084 -31.741754435633226 -72.33753445621078 0 0 0
30 1 30 -29.565435445520837 -54.0598262027168 -75.93383561820305 0 0 0
31 1 31 -14.916628854469533 -76.18936400594337 -73.86425726415703 0 0 0
32 1 32 4.877686856606806 -102.63709323156583 -60.88903646070662 0 0 0

Velocities

1 0 0 0
2 0 0 0
3 0 0 0
4 0 0 0
5 0 0 0
6 0 0 0
7 0 0 0
8 0 0 0
9 0 0 0
10 0 0 0
11 0 0 0
12 0 0 0
13 0 0 0
14 0 0 0
15 0 0 0
16 0 0 0
17 0 0 0
18 0 0 0
19 0 0 0
20 0 0 0
21 0 0 0
22 0 0 0
23 0 0 0
24 0 0 0
25 0 0 0
26 0 0 0
27 0 0 0
28 0 0 0
29 0 0 0
30 0 0 0
31 0 0 0
32 0 0 0

Bonds

1 1 1 2
2 2 2 3
3 3 3 4
4 4 4 5
5 5 5 6
6 6 6 7
7 7 7 8
8 8 8 9
9 9 9 10
10 10 10 11
11 11 11 12
12 12 12 13
13 13 13 14
14 14 14 15
15 15 15 16
16 16 16 17
17 17 17 18
18 18 18 19
19 19 19 20
20 20 20 21
21 21 21 22
22 22 22 23
23 23 23 24
24 24 24 25
25 25 25 26
26 26 26 27
27 27 27 28
28 28 28 29
29 29 29 30
30 30 30 31
31 31 31 32

Angles

1 1 1 2 3
2 2 2 3 4
3 3 3 4 5
4 4 4 5 6
5 5 5 6 7
6 6 6 7 8
7 7 7 8 9
8 8 8 9 10
9 9 9 10 11
10 10 10 11 12
11 11 11 12 13
12 12 12 13 14
13 13 13 14 15
14 14 14 15 16
15 15 15 16 17
16 16 16 17 18
17 17 17 18 19
18 18 18 19 20
19 19 19 20 21
20 20 20 21 22
21 21 21 22 23
22 22 22 23 24
23 23 23 24 25
24 24 24 25 26
25 25 25 26 27
26 26 26 27 28
27 27 27 28 29
28 28 28 29 30
29 29 29 30 31
30 30 30 31 32
