LAMMPS data file via write_data, version 4 May 2022, timestep = 501593

42 atoms
42 atom types
41 bonds
41 bond types
40 angles
40 angle types

-500 500 xlo xhi
-500 500 ylo yhi
-500 500 zlo zhi

Masses

1 18121.2887
2 1263.554
3 11018.2408
4 1116.269
5 10799.2278
6 1496.74
7 11058.7018
8 1294.449
9 11016.1008
10 1167.482
11 11023.2288
12 1208.322
13 11057.3328
14 1171.473
15 10755.0208
16 1157.206
17 8933.870800000001
18 5067.8109
19 6177.9699
20 1290.532
21 10663.7918
22 1010.14
23 10933.9498
24 1254.454
25 10911.2138
26 1219.438
27 10937.2478
28 1150.302
29 11190.2758
30 1213.367
31 10961.4098
32 1193.435
33 11045.5368
34 1216.398
35 11113.4088
36 1235.228
37 11953.5388
38 1171.317
39 11379.8468
40 1212.355
41 12757.5148
42 17941.8887

Bond Coeffs # harmonic

1 2.045 46.1746
2 5.825 23.4984
3 4.228 26.8487
4 2.885 23.3675
5 5.96 26.2061
6 7.155 23.162
7 7.6 26.5093
8 6.976 23.1642
9 4.116 27.0226
10 2.448 22.9662
11 1 25.385
12 4.414 22.0843
13 3.833 26.5635
14 3.1 23.7467
15 5.165 24.4217
16 1.221 20.7661
17 0.275 40.283
18 0.247 29.8576
19 0.315 42.2959
20 4.921 23.0997
21 0.622 24.3761
22 3.942 23.6432
23 4.625 27.5279
24 5.61 24.0771
25 5.383 26.705
26 4.342 23.231
27 0.594 25.2867
28 3.183 22.0111
29 3.759 24.9744
30 4.732 23.8018
31 4.27 25.416
32 2.483 25.7527
33 4.777 24.6831
34 2.623 24.9634
35 1.963 27.6717
36 3.459 26.8195
37 0.854 35.2366
38 2.821 25.4128
39 5.6 27.0142
40 1.766 34.3423
41 0.03 50.9712

Angle Coeffs # harmonic

1 69.386 163.998
2 314.499 175.7
3 144.392 172.091
4 431.93 174.182
5 75.83 167.946
6 492.352 175.398
7 136.887 161.003
8 337.411 166.74
9 99.209 171.731
10 97.609 141.892
11 31.388 114.574
12 288.624 153.211
13 78.482 160.025
14 237.823 171.687
15 86.92 171.082
16 294.159 33.7401
17 2904.9 13.9182
18 63.607 153.616
19 62.496 156.412
20 217.821 147.051
21 123.821 81.2009
22 186.414 170.284
23 132.593 172.92
24 381.213 174.483
25 165.011 171.85
26 80.455 162.804
27 71.636 95.767
28 183.101 156.335
29 85.786 147.715
30 178.587 158.828
31 85.495 166.611
32 180.507 174.671
33 93.417 163.137
34 176.485 165.404
35 37.427 153.369
36 170.776 157.81
37 78.479 81.569
38 247.384 172.399
39 47.626 161.699
40 27.584 166.421

Atoms # molecular

1 1 1   -13.37630366235714 -13.656172290357144 -13.131398751095238 0 0 0
2 1 2   -41.95690608886717 7.252379582741981 16.500936773930274 0 0 0
3 1 3   -52.860641195225305 14.664055022284916 35.952168880643946 0 0 0
4 1 4   -64.00922828318758 22.03086068525449 59.239329977612364 0 0 0
5 1 5   -71.45946725670261 26.612410392166634 80.90828006225215 0 0 0
6 1 6   -77.84537817209466 30.184222719328343 106.07218229720392 0 0 0
7 1 7   -79.7187727323158 30.38688048048114 129.15740628688135 0 0 0
8 1 8   -80.18104406463927 29.31527372281528 155.64100405346576 0 0 0
9 1 9   -74.59060783761018 23.827694942214553 177.4403999982671 0 0 0
10 1 10 -63.53756642283231 14.138261957448998 200.11563041996166 0 0 0
11 1 11 -51.95221583729781 4.416236360646344 217.39880757421685 0 0 0
12 1 12 -31.92846806737303 -10.442245812720545 222.16045201182146 0 0 0
13 1 13 -21.072415233821257 -17.26522808714599 204.17964735107256 0 0 0
14 1 14 -18.199613656929873 -20.31961484988121 177.94918290887406 0 0 0
15 1 15 -8.19409494319374 -20.072805766749145 156.4146886859869 0 0 0
16 1 16 2.518581278652216 -23.306504951820624 134.70751962513594 0 0 0
17 1 17 13.551709791792657 -28.140528525387797 117.79204740256034 0 0 0
18 1 18 -16.29254434711538 -5.809080730128831 133.0677478205404 0 0 0
19 1 19 5.2080957870436375 -17.793381334211173 116.16877475670013 0 0 0
20 1 20 33.899449592429455 -16.9155592877042 85.10466681716869 0 0 0
21 1 21 51.71481014288577 -8.611442424374793 72.96997639394758 0 0 0
22 1 22 64.65761820214982 10.986933050750547 66.44451476375889 0 0 0
23 1 23 43.039230885895236 20.535131296812263 65.75303349987315 0 0 0
24 1 24 16.377456795277936 27.262243604911664 64.45648394621016 0 0 0
25 1 25 -7.424478707466613 30.326671251418517 62.511260583068584 0 0 0
26 1 26 -33.933840847833764 31.324357184964892 59.44281363243207 0 0 0
27 1 27 -56.713188820266964 29.19836293360095 55.41034349689861 0 0 0
28 1 28 -79.18833078604015 20.435447819512774 47.8276982321106 0 0 0
29 1 29 -71.28423488395678 2.597357420952745 37.638668733995104 0 0 0
30 1 30 -53.71611064180497 -12.908296735933346 28.99827782042192 0 0 0
31 1 31 -30.58207669218424 -16.94623606843628 25.120494638651387 0 0 0
32 1 32 -5.724037051773776 -12.125925906686923 22.926062780442972 0 0 0
33 1 33 17.601572352226697 -1.554330978858628 20.213336494227736 0 0 0
34 1 34 38.90216830521303 10.43212856189543 16.768800918059327 0 0 0
35 1 35 56.08732680817126 26.970978272723062 9.399396801656067 0 0 0
36 1 36 69.85920425350488 47.655196870757045 -2.7752273613092076 0 0 0
37 1 37 72.35809990952781 67.64111415564521 -20.484101154747258 0 0 0
38 1 38 63.47157548436356 88.94510186564565 -47.107169551404496 0 0 0
39 1 39 43.342982413049455 73.45028544523625 -47.85604130761605 0 0 0
40 1 40 23.510191544979115 55.20634984824153 -45.96230902556245 0 0 0
41 1 41 4.930284455698472 28.18329024532567 -35.76746368387385 0 0 0
42 1 42 -13.37630366235714 -13.656172290357144 -13.131398751095238 0 0 0

Velocities

1 0 0 0
2 0 0 0
3 0 0 0
4 0 0 0
5 0 0 0
6 0 0 0
7 0 0 0
8 0 0 0
9 0 0 0
10 0 0 0
11 0 0 0
12 0 0 0
13 0 0 0
14 0 0 0
15 0 0 0
16 0 0 0
17 0 0 0
18 0 0 0
19 0 0 0
20 0 0 0
21 0 0 0
22 0 0 0
23 0 0 0
24 0 0 0
25 0 0 0
26 0 0 0
27 0 0 0
28 0 0 0
29 0 0 0
30 0 0 0
31 0 0 0
32 0 0 0
33 0 0 0
34 0 0 0
35 0 0 0
36 0 0 0
37 0 0 0
38 0 0 0
39 0 0 0
40 0 0 0
41 0 0 0
42 0 0 0

Bonds

1 1 1 2
2 2 2 3
3 3 3 4
4 4 4 5
5 5 5 6
6 6 6 7
7 7 7 8
8 8 8 9
9 9 9 10
10 10 10 11
11 11 11 12
12 12 12 13
13 13 13 14
14 14 14 15
15 15 15 16
16 16 16 17
17 17 17 18
18 18 18 19
19 19 19 20
20 20 20 21
21 21 21 22
22 22 22 23
23 23 23 24
24 24 24 25
25 25 25 26
26 26 26 27
27 27 27 28
28 28 28 29
29 29 29 30
30 30 30 31
31 31 31 32
32 32 32 33
33 33 33 34
34 34 34 35
35 35 35 36
36 36 36 37
37 37 37 38
38 38 38 39
39 39 39 40
40 40 40 41
41 41 41 42

Angles

1 1 1 2 3
2 2 2 3 4
3 3 3 4 5
4 4 4 5 6
5 5 5 6 7
6 6 6 7 8
7 7 7 8 9
8 8 8 9 10
9 9 9 10 11
10 10 10 11 12
11 11 11 12 13
12 12 12 13 14
13 13 13 14 15
14 14 14 15 16
15 15 15 16 17
16 16 16 17 18
17 17 17 18 19
18 18 18 19 20
19 19 19 20 21
20 20 20 21 22
21 21 21 22 23
22 22 22 23 24
23 23 23 24 25
24 24 24 25 26
25 25 25 26 27
26 26 26 27 28
27 27 27 28 29
28 28 28 29 30
29 29 29 30 31
30 30 30 31 32
31 31 31 32 33
32 32 32 33 34
33 33 33 34 35
34 34 34 35 36
35 35 35 36 37
36 36 36 37 38
37 37 37 38 39
38 38 38 39 40
39 39 39 40 41
40 40 40 41 42
