ITEM: TIMESTEP
0
ITEM: NUMBER OF ATOMS
840
ITEM: BOX BOUNDS pp pp pp
-1.5000000000000000e+03 1.5000000000000000e+03
-1.5000000000000000e+03 1.5000000000000000e+03
-1.5000000000000000e+03 1.5000000000000000e+03
ITEM: ATOMS mol id type mass
1 1 1 18121.3
1 2 2 1263.55
1 3 3 11018.2
1 4 4 1116.27
1 5 5 10799.2
1 6 6 1496.74
1 7 7 11058.7
1 8 8 1294.45
1 9 9 11016.1
1 10 10 1167.48
1 11 11 11023.2
1 12 12 1208.32
1 13 13 11057.3
1 14 14 1171.47
1 15 15 10755
1 16 16 1157.21
1 17 17 8933.87
1 18 18 5067.81
1 19 19 6177.97
1 20 20 1290.53
1 21 21 10663.8
1 22 22 1010.14
1 23 23 10933.9
1 24 24 1254.45
1 25 25 10911.2
1 26 26 1219.44
1 27 27 10937.2
1 28 28 1150.3
1 29 29 11190.3
1 30 30 1213.37
1 31 31 10961.4
1 32 32 1193.43
1 33 33 11045.5
1 34 34 1216.4
1 35 35 11113.4
1 36 36 1235.23
1 37 37 11953.5
1 38 38 1171.32
1 39 39 11379.8
1 40 40 1212.36
1 41 41 12757.5
1 42 42 17941.9
2 43 1 18121.3
2 44 2 1263.55
2 45 3 11018.2
2 46 4 1116.27
2 47 5 10799.2
2 48 6 1496.74
2 49 7 11058.7
2 50 8 1294.45
2 51 9 11016.1
2 52 10 1167.48
2 53 11 11023.2
2 54 12 1208.32
2 55 13 11057.3
2 56 14 1171.47
2 57 15 10755
2 58 16 1157.21
2 59 17 8933.87
2 60 18 5067.81
2 61 19 6177.97
2 62 20 1290.53
2 63 21 10663.8
2 64 22 1010.14
2 65 23 10933.9
2 66 24 1254.45
2 67 25 10911.2
2 68 26 1219.44
2 69 27 10937.2
2 70 28 1150.3
2 71 29 11190.3
2 72 30 1213.37
2 73 31 10961.4
2 74 32 1193.43
2 75 33 11045.5
2 76 34 1216.4
2 77 35 11113.4
2 78 36 1235.23
2 79 37 11953.5
2 80 38 1171.32
2 81 39 11379.8
2 82 40 1212.36
2 83 41 12757.5
2 84 42 17941.9
3 85 1 18121.3
3 86 2 1263.55
3 87 3 11018.2
3 88 4 1116.27
3 89 5 10799.2
3 90 6 1496.74
3 91 7 11058.7
3 92 8 1294.45
3 93 9 11016.1
3 94 10 1167.48
3 95 11 11023.2
3 96 12 1208.32
3 97 13 11057.3
3 98 14 1171.47
3 99 15 10755
3 100 16 1157.21
3 101 17 8933.87
3 102 18 5067.81
3 103 19 6177.97
3 104 20 1290.53
3 105 21 10663.8
3 106 22 1010.14
3 107 23 10933.9
3 108 24 1254.45
3 109 25 10911.2
3 110 26 1219.44
3 111 27 10937.2
3 112 28 1150.3
3 113 29 11190.3
3 114 30 1213.37
3 115 31 10961.4
3 116 32 1193.43
3 117 33 11045.5
3 118 34 1216.4
3 119 35 11113.4
3 120 36 1235.23
3 121 37 11953.5
3 122 38 1171.32
3 123 39 11379.8
3 124 40 1212.36
3 125 41 12757.5
3 126 42 17941.9
4 127 1 18121.3
4 128 2 1263.55
4 129 3 11018.2
4 130 4 1116.27
4 131 5 10799.2
4 132 6 1496.74
4 133 7 11058.7
4 134 8 1294.45
4 135 9 11016.1
4 136 10 1167.48
4 137 11 11023.2
4 138 12 1208.32
4 139 13 11057.3
4 140 14 1171.47
4 141 15 10755
4 142 16 1157.21
4 143 17 8933.87
4 144 18 5067.81
4 145 19 6177.97
4 146 20 1290.53
4 147 21 10663.8
4 148 22 1010.14
4 149 23 10933.9
4 150 24 1254.45
4 151 25 10911.2
4 152 26 1219.44
4 153 27 10937.2
4 154 28 1150.3
4 155 29 11190.3
4 156 30 1213.37
4 157 31 10961.4
4 158 32 1193.43
4 159 33 11045.5
4 160 34 1216.4
4 161 35 11113.4
4 162 36 1235.23
4 163 37 11953.5
4 164 38 1171.32
4 165 39 11379.8
4 166 40 1212.36
4 167 41 12757.5
4 168 42 17941.9
5 169 1 18121.3
5 170 2 1263.55
5 171 3 11018.2
5 172 4 1116.27
5 173 5 10799.2
5 174 6 1496.74
5 175 7 11058.7
5 176 8 1294.45
5 177 9 11016.1
5 178 10 1167.48
5 179 11 11023.2
5 180 12 1208.32
5 181 13 11057.3
5 182 14 1171.47
5 183 15 10755
5 184 16 1157.21
5 185 17 8933.87
5 186 18 5067.81
5 187 19 6177.97
5 188 20 1290.53
5 189 21 10663.8
5 190 22 1010.14
5 191 23 10933.9
5 192 24 1254.45
5 193 25 10911.2
5 194 26 1219.44
5 195 27 10937.2
5 196 28 1150.3
5 197 29 11190.3
5 198 30 1213.37
5 199 31 10961.4
5 200 32 1193.43
5 201 33 11045.5
5 202 34 1216.4
5 203 35 11113.4
5 204 36 1235.23
5 205 37 11953.5
5 206 38 1171.32
5 207 39 11379.8
5 208 40 1212.36
5 209 41 12757.5
5 210 42 17941.9
6 211 1 18121.3
6 212 2 1263.55
6 213 3 11018.2
6 214 4 1116.27
6 215 5 10799.2
6 216 6 1496.74
6 217 7 11058.7
6 218 8 1294.45
6 219 9 11016.1
6 220 10 1167.48
6 221 11 11023.2
6 222 12 1208.32
6 223 13 11057.3
6 224 14 1171.47
6 225 15 10755
6 226 16 1157.21
6 227 17 8933.87
6 228 18 5067.81
6 229 19 6177.97
6 230 20 1290.53
6 231 21 10663.8
6 232 22 1010.14
6 233 23 10933.9
6 234 24 1254.45
6 235 25 10911.2
6 236 26 1219.44
6 237 27 10937.2
6 238 28 1150.3
6 239 29 11190.3
6 240 30 1213.37
6 241 31 10961.4
6 242 32 1193.43
6 243 33 11045.5
6 244 34 1216.4
6 245 35 11113.4
6 246 36 1235.23
6 247 37 11953.5
6 248 38 1171.32
6 249 39 11379.8
6 250 40 1212.36
6 251 41 12757.5
6 252 42 17941.9
7 253 1 18121.3
7 254 2 1263.55
7 255 3 11018.2
7 256 4 1116.27
7 257 5 10799.2
7 258 6 1496.74
7 259 7 11058.7
7 260 8 1294.45
7 261 9 11016.1
7 262 10 1167.48
7 263 11 11023.2
7 264 12 1208.32
7 265 13 11057.3
7 266 14 1171.47
7 267 15 10755
7 268 16 1157.21
7 269 17 8933.87
7 270 18 5067.81
7 271 19 6177.97
7 272 20 1290.53
7 273 21 10663.8
7 274 22 1010.14
7 275 23 10933.9
7 276 24 1254.45
7 277 25 10911.2
7 278 26 1219.44
7 279 27 10937.2
7 280 28 1150.3
7 281 29 11190.3
7 282 30 1213.37
7 283 31 10961.4
7 284 32 1193.43
7 285 33 11045.5
7 286 34 1216.4
7 287 35 11113.4
7 288 36 1235.23
7 289 37 11953.5
7 290 38 1171.32
7 291 39 11379.8
7 292 40 1212.36
7 293 41 12757.5
7 294 42 17941.9
8 295 1 18121.3
8 296 2 1263.55
8 297 3 11018.2
8 298 4 1116.27
8 299 5 10799.2
8 300 6 1496.74
8 301 7 11058.7
8 302 8 1294.45
8 303 9 11016.1
8 304 10 1167.48
8 305 11 11023.2
8 306 12 1208.32
8 307 13 11057.3
8 308 14 1171.47
8 309 15 10755
8 310 16 1157.21
8 311 17 8933.87
8 312 18 5067.81
8 313 19 6177.97
8 314 20 1290.53
8 315 21 10663.8
8 316 22 1010.14
8 317 23 10933.9
8 318 24 1254.45
8 319 25 10911.2
8 320 26 1219.44
8 321 27 10937.2
8 322 28 1150.3
8 323 29 11190.3
8 324 30 1213.37
8 325 31 10961.4
8 326 32 1193.43
8 327 33 11045.5
8 328 34 1216.4
8 329 35 11113.4
8 330 36 1235.23
8 331 37 11953.5
8 332 38 1171.32
8 333 39 11379.8
8 334 40 1212.36
8 335 41 12757.5
8 336 42 17941.9
9 337 1 18121.3
9 338 2 1263.55
9 339 3 11018.2
9 340 4 1116.27
9 341 5 10799.2
9 342 6 1496.74
9 343 7 11058.7
9 344 8 1294.45
9 345 9 11016.1
9 346 10 1167.48
9 347 11 11023.2
9 348 12 1208.32
9 349 13 11057.3
9 350 14 1171.47
9 351 15 10755
9 352 16 1157.21
9 353 17 8933.87
9 354 18 5067.81
9 355 19 6177.97
9 356 20 1290.53
9 357 21 10663.8
9 358 22 1010.14
9 359 23 10933.9
9 360 24 1254.45
9 361 25 10911.2
9 362 26 1219.44
9 363 27 10937.2
9 364 28 1150.3
9 365 29 11190.3
9 366 30 1213.37
9 367 31 10961.4
9 368 32 1193.43
9 369 33 11045.5
9 370 34 1216.4
9 371 35 11113.4
9 372 36 1235.23
9 373 37 11953.5
9 374 38 1171.32
9 375 39 11379.8
9 376 40 1212.36
9 377 41 12757.5
9 378 42 17941.9
10 379 1 18121.3
10 380 2 1263.55
10 381 3 11018.2
10 382 4 1116.27
10 383 5 10799.2
10 384 6 1496.74
10 385 7 11058.7
10 386 8 1294.45
10 387 9 11016.1
10 388 10 1167.48
10 389 11 11023.2
10 390 12 1208.32
10 391 13 11057.3
10 392 14 1171.47
10 393 15 10755
10 394 16 1157.21
10 395 17 8933.87
10 396 18 5067.81
10 397 19 6177.97
10 398 20 1290.53
10 399 21 10663.8
10 400 22 1010.14
10 401 23 10933.9
10 402 24 1254.45
10 403 25 10911.2
10 404 26 1219.44
10 405 27 10937.2
10 406 28 1150.3
10 407 29 11190.3
10 408 30 1213.37
10 409 31 10961.4
10 410 32 1193.43
10 411 33 11045.5
10 412 34 1216.4
10 413 35 11113.4
10 414 36 1235.23
10 415 37 11953.5
10 416 38 1171.32
10 417 39 11379.8
10 418 40 1212.36
10 419 41 12757.5
10 420 42 17941.9
11 421 1 18121.3
11 422 2 1263.55
11 423 3 11018.2
11 424 4 1116.27
11 425 5 10799.2
11 426 6 1496.74
11 427 7 11058.7
11 428 8 1294.45
11 429 9 11016.1
11 430 10 1167.48
11 431 11 11023.2
11 432 12 1208.32
11 433 13 11057.3
11 434 14 1171.47
11 435 15 10755
11 436 16 1157.21
11 437 17 8933.87
11 438 18 5067.81
11 439 19 6177.97
11 440 20 1290.53
11 441 21 10663.8
11 442 22 1010.14
11 443 23 10933.9
11 444 24 1254.45
11 445 25 10911.2
11 446 26 1219.44
11 447 27 10937.2
11 448 28 1150.3
11 449 29 11190.3
11 450 30 1213.37
11 451 31 10961.4
11 452 32 1193.43
11 453 33 11045.5
11 454 34 1216.4
11 455 35 11113.4
11 456 36 1235.23
11 457 37 11953.5
11 458 38 1171.32
11 459 39 11379.8
11 460 40 1212.36
11 461 41 12757.5
11 462 42 17941.9
12 463 1 18121.3
12 464 2 1263.55
12 465 3 11018.2
12 466 4 1116.27
12 467 5 10799.2
12 468 6 1496.74
12 469 7 11058.7
12 470 8 1294.45
12 471 9 11016.1
12 472 10 1167.48
12 473 11 11023.2
12 474 12 1208.32
12 475 13 11057.3
12 476 14 1171.47
12 477 15 10755
12 478 16 1157.21
12 479 17 8933.87
12 480 18 5067.81
12 481 19 6177.97
12 482 20 1290.53
12 483 21 10663.8
12 484 22 1010.14
12 485 23 10933.9
12 486 24 1254.45
12 487 25 10911.2
12 488 26 1219.44
12 489 27 10937.2
12 490 28 1150.3
12 491 29 11190.3
12 492 30 1213.37
12 493 31 10961.4
12 494 32 1193.43
12 495 33 11045.5
12 496 34 1216.4
12 497 35 11113.4
12 498 36 1235.23
12 499 37 11953.5
12 500 38 1171.32
12 501 39 11379.8
12 502 40 1212.36
12 503 41 12757.5
12 504 42 17941.9
13 505 1 18121.3
13 506 2 1263.55
13 507 3 11018.2
13 508 4 1116.27
13 509 5 10799.2
13 510 6 1496.74
13 511 7 11058.7
13 512 8 1294.45
13 513 9 11016.1
13 514 10 1167.48
13 515 11 11023.2
13 516 12 1208.32
13 517 13 11057.3
13 518 14 1171.47
13 519 15 10755
13 520 16 1157.21
13 521 17 8933.87
13 522 18 5067.81
13 523 19 6177.97
13 524 20 1290.53
13 525 21 10663.8
13 526 22 1010.14
13 527 23 10933.9
13 528 24 1254.45
13 529 25 10911.2
13 530 26 1219.44
13 531 27 10937.2
13 532 28 1150.3
13 533 29 11190.3
13 534 30 1213.37
13 535 31 10961.4
13 536 32 1193.43
13 537 33 11045.5
13 538 34 1216.4
13 539 35 11113.4
13 540 36 1235.23
13 541 37 11953.5
13 542 38 1171.32
13 543 39 11379.8
13 544 40 1212.36
13 545 41 12757.5
13 546 42 17941.9
14 547 1 18121.3
14 548 2 1263.55
14 549 3 11018.2
14 550 4 1116.27
14 551 5 10799.2
14 552 6 1496.74
14 553 7 11058.7
14 554 8 1294.45
14 555 9 11016.1
14 556 10 1167.48
14 557 11 11023.2
14 558 12 1208.32
14 559 13 11057.3
14 560 14 1171.47
14 561 15 10755
14 562 16 1157.21
14 563 17 8933.87
14 564 18 5067.81
14 565 19 6177.97
14 566 20 1290.53
14 567 21 10663.8
14 568 22 1010.14
14 569 23 10933.9
14 570 24 1254.45
14 571 25 10911.2
14 572 26 1219.44
14 573 27 10937.2
14 574 28 1150.3
14 575 29 11190.3
14 576 30 1213.37
14 577 31 10961.4
14 578 32 1193.43
14 579 33 11045.5
14 580 34 1216.4
14 581 35 11113.4
14 582 36 1235.23
14 583 37 11953.5
14 584 38 1171.32
14 585 39 11379.8
14 586 40 1212.36
14 587 41 12757.5
14 588 42 17941.9
15 589 1 18121.3
15 590 2 1263.55
15 591 3 11018.2
15 592 4 1116.27
15 593 5 10799.2
15 594 6 1496.74
15 595 7 11058.7
15 596 8 1294.45
15 597 9 11016.1
15 598 10 1167.48
15 599 11 11023.2
15 600 12 1208.32
15 601 13 11057.3
15 602 14 1171.47
15 603 15 10755
15 604 16 1157.21
15 605 17 8933.87
15 606 18 5067.81
15 607 19 6177.97
15 608 20 1290.53
15 609 21 10663.8
15 610 22 1010.14
15 611 23 10933.9
15 612 24 1254.45
15 613 25 10911.2
15 614 26 1219.44
15 615 27 10937.2
15 616 28 1150.3
15 617 29 11190.3
15 618 30 1213.37
15 619 31 10961.4
15 620 32 1193.43
15 621 33 11045.5
15 622 34 1216.4
15 623 35 11113.4
15 624 36 1235.23
15 625 37 11953.5
15 626 38 1171.32
15 627 39 11379.8
15 628 40 1212.36
15 629 41 12757.5
15 630 42 17941.9
16 631 1 18121.3
16 632 2 1263.55
16 633 3 11018.2
16 634 4 1116.27
16 635 5 10799.2
16 636 6 1496.74
16 637 7 11058.7
16 638 8 1294.45
16 639 9 11016.1
16 640 10 1167.48
16 641 11 11023.2
16 642 12 1208.32
16 643 13 11057.3
16 644 14 1171.47
16 645 15 10755
16 646 16 1157.21
16 647 17 8933.87
16 648 18 5067.81
16 649 19 6177.97
16 650 20 1290.53
16 651 21 10663.8
16 652 22 1010.14
16 653 23 10933.9
16 654 24 1254.45
16 655 25 10911.2
16 656 26 1219.44
16 657 27 10937.2
16 658 28 1150.3
16 659 29 11190.3
16 660 30 1213.37
16 661 31 10961.4
16 662 32 1193.43
16 663 33 11045.5
16 664 34 1216.4
16 665 35 11113.4
16 666 36 1235.23
16 667 37 11953.5
16 668 38 1171.32
16 669 39 11379.8
16 670 40 1212.36
16 671 41 12757.5
16 672 42 17941.9
17 673 1 18121.3
17 674 2 1263.55
17 675 3 11018.2
17 676 4 1116.27
17 677 5 10799.2
17 678 6 1496.74
17 679 7 11058.7
17 680 8 1294.45
17 681 9 11016.1
17 682 10 1167.48
17 683 11 11023.2
17 684 12 1208.32
17 685 13 11057.3
17 686 14 1171.47
17 687 15 10755
17 688 16 1157.21
17 689 17 8933.87
17 690 18 5067.81
17 691 19 6177.97
17 692 20 1290.53
17 693 21 10663.8
17 694 22 1010.14
17 695 23 10933.9
17 696 24 1254.45
17 697 25 10911.2
17 698 26 1219.44
17 699 27 10937.2
17 700 28 1150.3
17 701 29 11190.3
17 702 30 1213.37
17 703 31 10961.4
17 704 32 1193.43
17 705 33 11045.5
17 706 34 1216.4
17 707 35 11113.4
17 708 36 1235.23
17 709 37 11953.5
17 710 38 1171.32
17 711 39 11379.8
17 712 40 1212.36
17 713 41 12757.5
17 714 42 17941.9
18 715 1 18121.3
18 716 2 1263.55
18 717 3 11018.2
18 718 4 1116.27
18 719 5 10799.2
18 720 6 1496.74
18 721 7 11058.7
18 722 8 1294.45
18 723 9 11016.1
18 724 10 1167.48
18 725 11 11023.2
18 726 12 1208.32
18 727 13 11057.3
18 728 14 1171.47
18 729 15 10755
18 730 16 1157.21
18 731 17 8933.87
18 732 18 5067.81
18 733 19 6177.97
18 734 20 1290.53
18 735 21 10663.8
18 736 22 1010.14
18 737 23 10933.9
18 738 24 1254.45
18 739 25 10911.2
18 740 26 1219.44
18 741 27 10937.2
18 742 28 1150.3
18 743 29 11190.3
18 744 30 1213.37
18 745 31 10961.4
18 746 32 1193.43
18 747 33 11045.5
18 748 34 1216.4
18 749 35 11113.4
18 750 36 1235.23
18 751 37 11953.5
18 752 38 1171.32
18 753 39 11379.8
18 754 40 1212.36
18 755 41 12757.5
18 756 42 17941.9
19 757 1 18121.3
19 758 2 1263.55
19 759 3 11018.2
19 760 4 1116.27
19 761 5 10799.2
19 762 6 1496.74
19 763 7 11058.7
19 764 8 1294.45
19 765 9 11016.1
19 766 10 1167.48
19 767 11 11023.2
19 768 12 1208.32
19 769 13 11057.3
19 770 14 1171.47
19 771 15 10755
19 772 16 1157.21
19 773 17 8933.87
19 774 18 5067.81
19 775 19 6177.97
19 776 20 1290.53
19 777 21 10663.8
19 778 22 1010.14
19 779 23 10933.9
19 780 24 1254.45
19 781 25 10911.2
19 782 26 1219.44
19 783 27 10937.2
19 784 28 1150.3
19 785 29 11190.3
19 786 30 1213.37
19 787 31 10961.4
19 788 32 1193.43
19 789 33 11045.5
19 790 34 1216.4
19 791 35 11113.4
19 792 36 1235.23
19 793 37 11953.5
19 794 38 1171.32
19 795 39 11379.8
19 796 40 1212.36
19 797 41 12757.5
19 798 42 17941.9
20 799 1 18121.3
20 800 2 1263.55
20 801 3 11018.2
20 802 4 1116.27
20 803 5 10799.2
20 804 6 1496.74
20 805 7 11058.7
20 806 8 1294.45
20 807 9 11016.1
20 808 10 1167.48
20 809 11 11023.2
20 810 12 1208.32
20 811 13 11057.3
20 812 14 1171.47
20 813 15 10755
20 814 16 1157.21
20 815 17 8933.87
20 816 18 5067.81
20 817 19 6177.97
20 818 20 1290.53
20 819 21 10663.8
20 820 22 1010.14
20 821 23 10933.9
20 822 24 1254.45
20 823 25 10911.2
20 824 26 1219.44
20 825 27 10937.2
20 826 28 1150.3
20 827 29 11190.3
20 828 30 1213.37
20 829 31 10961.4
20 830 32 1193.43
20 831 33 11045.5
20 832 34 1216.4
20 833 35 11113.4
20 834 36 1235.23
20 835 37 11953.5
20 836 38 1171.32
20 837 39 11379.8
20 838 40 1212.36
20 839 41 12757.5
20 840 42 17941.9
